# vtk DataFile Version 2.0
Darius VTK file writer
ASCII
DATASET POLYDATA
POINTS 24 float
-1 -1 -1
-1 10 -1
-1 -1 -1
-1 -1 7
-1 -1 -1
11 -1 -1
11 10 7
11 -1 7
11 10 7
11 10 -1
11 10 7
-1 10 7
-1 10 -1
-1 10 7
-1 10 -1
11 10 -1
-1 -1 7
-1 10 7
-1 -1 7
11 -1 7
11 -1 -1
11 10 -1
11 -1 -1
11 -1 7
LINES 12 36
2 0 1
2 2 3
2 4 5
2 6 7
2 8 9
2 10 11
2 12 13
2 14 15
2 16 17
2 18 19
2 20 21
2 22 23
POINT_DATA 24
SCALARS my_scalars float
LOOKUP_TABLE custom_table
1.0
1.0
1.0
1.0
1.0
1.0
1.0
1.0
1.0
1.0
1.0
1.0
1.0
1.0
1.0
1.0
1.0
1.0
1.0
1.0
1.0
1.0
1.0
1.0

LOOKUP_TABLE custom_table 2
1.0 1.0 1.0 1.0
1 0 0 1.0
