# vtk DataFile Version 2.0
Darius VTK file writer
ASCII
DATASET POLYDATA
POINTS 8 float
1.5 2 1
5 2 1
5 3 1
1.5 3 1
1.5 2 2
5 2 2
5 3 2
1.5 3 2
POLYGONS 6 30
4 0 1 2 3
4 4 5 6 7
4 0 1 5 4
4 2 3 7 6
4 0 4 7 3
4 1 2 6 5
POINT_DATA 8
SCALARS my_scalars float
LOOKUP_TABLE custom_table
1.0
1.0
1.0
1.0
1.0
1.0
1.0
1.0

LOOKUP_TABLE custom_table 2
1.0 1.0 1.0 1.0
1 0 0 1.0
