# vtk DataFile Version 2.0
Darius VTK file writer
ASCII
DATASET POLYDATA
POINTS 56 float
0 3.75 0
2.5 3.75 0
2.5 4.75 0
0 4.75 0
0 3.75 0
2.5 3.75 0
2.5 4.75 0
0 4.75 0
1.5 2 0
5 2 0
5 3 0
1.5 3 0
1.5 2 0
5 2 0
5 3 0
1.5 3 0
3 0.25 0
5.5 0.25 0
5.5 1.5 0
3 1.5 0
3 0.25 0
5.5 0.25 0
5.5 1.5 0
3 1.5 0
6 0 0
7 0 0
7 3.5 0
6 3.5 0
6 0 0
7 0 0
7 3.5 0
6 3.5 0
7.25 0.5 0
8.5 0.5 0
8.5 2 0
7.25 2 0
7.25 0.5 0
8.5 0.5 0
8.5 2 0
7.25 2 0
1.75 6 0
3 6 0
3 8.5 0
1.75 8.5 0
1.75 6 0
3 6 0
3 8.5 0
1.75 8.5 0
3.5 6 0
6.5 6 0
6.5 7.25 0
3.5 7.25 0
3.5 6 0
6.5 6 0
6.5 7.25 0
3.5 7.25 0
POLYGONS 42 210
4 0 1 2 3
4 4 5 6 7
4 0 1 5 4
4 2 3 7 6
4 0 4 7 3
4 1 2 6 5
4 8 9 10 11
4 12 13 14 15
4 8 9 13 12
4 10 11 15 14
4 8 12 15 11
4 9 10 14 13
4 16 17 18 19
4 20 21 22 23
4 16 17 21 20
4 18 19 23 22
4 16 20 23 19
4 17 18 22 21
4 24 25 26 27
4 28 29 30 31
4 24 25 29 28
4 26 27 31 30
4 24 28 31 27
4 25 26 30 29
4 32 33 34 35
4 36 37 38 39
4 32 33 37 36
4 34 35 39 38
4 32 36 39 35
4 33 34 38 37
4 40 41 42 43
4 44 45 46 47
4 40 41 45 44
4 42 43 47 46
4 40 44 47 43
4 41 42 46 45
4 48 49 50 51
4 52 53 54 55
4 48 49 53 52
4 50 51 55 54
4 48 52 55 51
4 49 50 54 53
POINT_DATA 56
SCALARS my_scalars float
LOOKUP_TABLE custom_table
1.0
1.0
1.0
1.0
1.0
1.0
1.0
1.0
1.0
1.0
1.0
1.0
1.0
1.0
1.0
1.0
1.0
1.0
1.0
1.0
1.0
1.0
1.0
1.0
1.0
1.0
1.0
1.0
1.0
1.0
1.0
1.0
1.0
1.0
1.0
1.0
1.0
1.0
1.0
1.0
1.0
1.0
1.0
1.0
1.0
1.0
1.0
1.0
1.0
1.0
1.0
1.0
1.0
1.0
1.0
1.0

LOOKUP_TABLE custom_table 2
1.0 1.0 1.0 1.0
1 0 0 1.0
