# vtk DataFile Version 2.0
Farhan's VTK file writer (color support added by Darius)
ASCII
DATASET POLYDATA
POINTS 168 float
0 3.75 0
0 4.75 0
0 3.75 0
0 3.75 0
0 3.75 0
2.5 3.75 0
2.5 4.75 0
2.5 3.75 0
2.5 4.75 0
2.5 4.75 0
2.5 4.75 0
0 4.75 0
0 4.75 0
0 4.75 0
0 4.75 0
2.5 4.75 0
0 3.75 0
0 4.75 0
0 3.75 0
2.5 3.75 0
2.5 3.75 0
2.5 4.75 0
2.5 3.75 0
2.5 3.75 0
1.5 2 0
1.5 3 0
1.5 2 0
1.5 2 0
1.5 2 0
5 2 0
5 3 0
5 2 0
5 3 0
5 3 0
5 3 0
1.5 3 0
1.5 3 0
1.5 3 0
1.5 3 0
5 3 0
1.5 2 0
1.5 3 0
1.5 2 0
5 2 0
5 2 0
5 3 0
5 2 0
5 2 0
3 0.25 0
3 1.5 0
3 0.25 0
3 0.25 0
3 0.25 0
5.5 0.25 0
5.5 1.5 0
5.5 0.25 0
5.5 1.5 0
5.5 1.5 0
5.5 1.5 0
3 1.5 0
3 1.5 0
3 1.5 0
3 1.5 0
5.5 1.5 0
3 0.25 0
3 1.5 0
3 0.25 0
5.5 0.25 0
5.5 0.25 0
5.5 1.5 0
5.5 0.25 0
5.5 0.25 0
6 0 0
6 3.5 0
6 0 0
6 0 0
6 0 0
7 0 0
7 3.5 0
7 0 0
7 3.5 0
7 3.5 0
7 3.5 0
6 3.5 0
6 3.5 0
6 3.5 0
6 3.5 0
7 3.5 0
6 0 0
6 3.5 0
6 0 0
7 0 0
7 0 0
7 3.5 0
7 0 0
7 0 0
7.25 0.5 0
7.25 2 0
7.25 0.5 0
7.25 0.5 0
7.25 0.5 0
8.5 0.5 0
8.5 2 0
8.5 0.5 0
8.5 2 0
8.5 2 0
8.5 2 0
7.25 2 0
7.25 2 0
7.25 2 0
7.25 2 0
8.5 2 0
7.25 0.5 0
7.25 2 0
7.25 0.5 0
8.5 0.5 0
8.5 0.5 0
8.5 2 0
8.5 0.5 0
8.5 0.5 0
1.75 6 0
1.75 8.5 0
1.75 6 0
1.75 6 0
1.75 6 0
3 6 0
3 8.5 0
3 6 0
3 8.5 0
3 8.5 0
3 8.5 0
1.75 8.5 0
1.75 8.5 0
1.75 8.5 0
1.75 8.5 0
3 8.5 0
1.75 6 0
1.75 8.5 0
1.75 6 0
3 6 0
3 6 0
3 8.5 0
3 6 0
3 6 0
3.5 6 0
3.5 7.25 0
3.5 6 0
3.5 6 0
3.5 6 0
6.5 6 0
6.5 7.25 0
6.5 6 0
6.5 7.25 0
6.5 7.25 0
6.5 7.25 0
3.5 7.25 0
3.5 7.25 0
3.5 7.25 0
3.5 7.25 0
6.5 7.25 0
3.5 6 0
3.5 7.25 0
3.5 6 0
6.5 6 0
6.5 6 0
6.5 7.25 0
6.5 6 0
6.5 6 0
LINES 84 252
2 0 1
2 2 3
2 4 5
2 6 7
2 8 9
2 10 11
2 12 13
2 14 15
2 16 17
2 18 19
2 20 21
2 22 23
2 24 25
2 26 27
2 28 29
2 30 31
2 32 33
2 34 35
2 36 37
2 38 39
2 40 41
2 42 43
2 44 45
2 46 47
2 48 49
2 50 51
2 52 53
2 54 55
2 56 57
2 58 59
2 60 61
2 62 63
2 64 65
2 66 67
2 68 69
2 70 71
2 72 73
2 74 75
2 76 77
2 78 79
2 80 81
2 82 83
2 84 85
2 86 87
2 88 89
2 90 91
2 92 93
2 94 95
2 96 97
2 98 99
2 100 101
2 102 103
2 104 105
2 106 107
2 108 109
2 110 111
2 112 113
2 114 115
2 116 117
2 118 119
2 120 121
2 122 123
2 124 125
2 126 127
2 128 129
2 130 131
2 132 133
2 134 135
2 136 137
2 138 139
2 140 141
2 142 143
2 144 145
2 146 147
2 148 149
2 150 151
2 152 153
2 154 155
2 156 157
2 158 159
2 160 161
2 162 163
2 164 165
2 166 167
POINT_DATA 168
SCALARS my_scalars float
LOOKUP_TABLE custom_table
1.0
1.0
1.0
1.0
1.0
1.0
1.0
1.0
1.0
1.0
1.0
1.0
1.0
1.0
1.0
1.0
1.0
1.0
1.0
1.0
1.0
1.0
1.0
1.0
1.0
1.0
1.0
1.0
1.0
1.0
1.0
1.0
1.0
1.0
1.0
1.0
1.0
1.0
1.0
1.0
1.0
1.0
1.0
1.0
1.0
1.0
1.0
1.0
1.0
1.0
1.0
1.0
1.0
1.0
1.0
1.0
1.0
1.0
1.0
1.0
1.0
1.0
1.0
1.0
1.0
1.0
1.0
1.0
1.0
1.0
1.0
1.0
1.0
1.0
1.0
1.0
1.0
1.0
1.0
1.0
1.0
1.0
1.0
1.0
1.0
1.0
1.0
1.0
1.0
1.0
1.0
1.0
1.0
1.0
1.0
1.0
1.0
1.0
1.0
1.0
1.0
1.0
1.0
1.0
1.0
1.0
1.0
1.0
1.0
1.0
1.0
1.0
1.0
1.0
1.0
1.0
1.0
1.0
1.0
1.0
1.0
1.0
1.0
1.0
1.0
1.0
1.0
1.0
1.0
1.0
1.0
1.0
1.0
1.0
1.0
1.0
1.0
1.0
1.0
1.0
1.0
1.0
1.0
1.0
1.0
1.0
1.0
1.0
1.0
1.0
1.0
1.0
1.0
1.0
1.0
1.0
1.0
1.0
1.0
1.0
1.0
1.0
1.0
1.0
1.0
1.0
1.0
1.0

LOOKUP_TABLE custom_table 2
1.0 1.0 1.0 1.0
1 0 0 1.0
